 VARIABLES = "X", "Y", "Z"
 ZONE F=FEPOINT, ET=QUADRILATERAL, N=       15334 E=       15006
  -3.0000000000000000       -3.0000000000000000        0.0000000000000000     
  -2.9300000000000002       -3.0000000000000000        0.0000000000000000     
  -2.8599999999999999       -3.0000000000000000        0.0000000000000000     
  -2.7900000000000000       -3.0000000000000000        0.0000000000000000     
  -2.7199999999999998       -3.0000000000000000        0.0000000000000000     
  -2.6499999999999999       -3.0000000000000000        0.0000000000000000     
  -2.5800000000000001       -3.0000000000000000        0.0000000000000000     
  -2.5099999999999998       -3.0000000000000000        0.0000000000000000     
  -2.4399999999999999       -3.0000000000000000        0.0000000000000000     
  -2.3700000000000001       -3.0000000000000000        0.0000000000000000     
  -2.2999999999999998       -3.0000000000000000        0.0000000000000000     
  -2.2300000000000000       -3.0000000000000000        0.0000000000000000     
  -2.1600000000000001       -3.0000000000000000        0.0000000000000000     
  -2.0899999999999999       -3.0000000000000000        0.0000000000000000     
  -2.0200000000000000       -3.0000000000000000        0.0000000000000000     
  -1.9500000000000000       -3.0000000000000000        0.0000000000000000     
  -1.8799999999999999       -3.0000000000000000        0.0000000000000000     
  -1.8099999999999998       -3.0000000000000000        0.0000000000000000     
  -1.7399999999999998       -3.0000000000000000        0.0000000000000000     
  -1.6699999999999999       -3.0000000000000000        0.0000000000000000     
  -1.5999999999999999       -3.0000000000000000        0.0000000000000000     
  -1.5299999999999998       -3.0000000000000000        0.0000000000000000     
  -1.4600000000000000       -3.0000000000000000        0.0000000000000000     
  -1.3899999999999999       -3.0000000000000000        0.0000000000000000     
  -1.3199999999999998       -3.0000000000000000        0.0000000000000000     
  -1.2499999999999998       -3.0000000000000000        0.0000000000000000     
  -1.1799999999999997       -3.0000000000000000        0.0000000000000000     
  -1.1099999999999999       -3.0000000000000000        0.0000000000000000     
  -1.0399999999999998       -3.0000000000000000        0.0000000000000000     
 -0.96999999999999975       -3.0000000000000000        0.0000000000000000     
 -0.89999999999999991       -3.0000000000000000        0.0000000000000000     
 -0.82999999999999963       -3.0000000000000000        0.0000000000000000     
 -0.75999999999999979       -3.0000000000000000        0.0000000000000000     
 -0.68999999999999995       -3.0000000000000000        0.0000000000000000     
 -0.61999999999999966       -3.0000000000000000        0.0000000000000000     
 -0.54999999999999982       -3.0000000000000000        0.0000000000000000     
 -0.47999999999999954       -3.0000000000000000        0.0000000000000000     
 -0.40999999999999970       -3.0000000000000000        0.0000000000000000     
 -0.33999999999999986       -3.0000000000000000        0.0000000000000000     
 -0.26999999999999957       -3.0000000000000000        0.0000000000000000     
 -0.19999999999999973       -3.0000000000000000        0.0000000000000000     
 -0.12999999999999989       -3.0000000000000000        0.0000000000000000     
  -5.9999999999999609E-002  -3.0000000000000000        0.0000000000000000     
   1.0000000000000231E-002  -3.0000000000000000        0.0000000000000000     
   8.0000000000000071E-002  -3.0000000000000000        0.0000000000000000     
  0.15000000000000036       -3.0000000000000000        0.0000000000000000     
  0.22000000000000020       -3.0000000000000000        0.0000000000000000     
  0.29000000000000048       -3.0000000000000000        0.0000000000000000     
  0.36000000000000032       -3.0000000000000000        0.0000000000000000     
  0.43000000000000016       -3.0000000000000000        0.0000000000000000     
  0.50000000000000044       -3.0000000000000000        0.0000000000000000     
  0.57000000000000028       -3.0000000000000000        0.0000000000000000     
  0.64000000000000057       -3.0000000000000000        0.0000000000000000     
  0.71000000000000041       -3.0000000000000000        0.0000000000000000     
  0.78000000000000025       -3.0000000000000000        0.0000000000000000     
  0.85000000000000053       -3.0000000000000000        0.0000000000000000     
  0.92000000000000037       -3.0000000000000000        0.0000000000000000     
  0.99000000000000021       -3.0000000000000000        0.0000000000000000     
   1.0600000000000005       -3.0000000000000000        0.0000000000000000     
   1.1300000000000008       -3.0000000000000000        0.0000000000000000     
   1.2000000000000002       -3.0000000000000000        0.0000000000000000     
   1.2700000000000005       -3.0000000000000000        0.0000000000000000     
   1.3400000000000007       -3.0000000000000000        0.0000000000000000     
   1.4100000000000001       -3.0000000000000000        0.0000000000000000     
   1.4800000000000004       -3.0000000000000000        0.0000000000000000     
   1.5500000000000007       -3.0000000000000000        0.0000000000000000     
   1.6200000000000001       -3.0000000000000000        0.0000000000000000     
   1.6900000000000004       -3.0000000000000000        0.0000000000000000     
   1.7600000000000007       -3.0000000000000000        0.0000000000000000     
   1.8300000000000001       -3.0000000000000000        0.0000000000000000     
   1.9000000000000004       -3.0000000000000000        0.0000000000000000     
   1.9700000000000006       -3.0000000000000000        0.0000000000000000     
   2.0400000000000009       -3.0000000000000000        0.0000000000000000     
   2.1100000000000003       -3.0000000000000000        0.0000000000000000     
   2.1800000000000006       -3.0000000000000000        0.0000000000000000     
   2.2500000000000009       -3.0000000000000000        0.0000000000000000     
   2.3200000000000003       -3.0000000000000000        0.0000000000000000     
   2.3900000000000006       -3.0000000000000000        0.0000000000000000     
   2.4600000000000009       -3.0000000000000000        0.0000000000000000     
   2.5300000000000002       -3.0000000000000000        0.0000000000000000     
   2.6000000000000005       -3.0000000000000000        0.0000000000000000     
   2.6700000000000008       -3.0000000000000000        0.0000000000000000     
   2.7400000000000002       -3.0000000000000000        0.0000000000000000     
   2.8100000000000005       -3.0000000000000000        0.0000000000000000     
   2.8800000000000008       -3.0000000000000000        0.0000000000000000     
   2.9500000000000002       -3.0000000000000000        0.0000000000000000     
   3.0200000000000005       -3.0000000000000000        0.0000000000000000     
   3.0900000000000007       -3.0000000000000000        0.0000000000000000     
   3.1600000000000001       -3.0000000000000000        0.0000000000000000     
   3.2300000000000004       -3.0000000000000000        0.0000000000000000     
   3.3000000000000007       -3.0000000000000000        0.0000000000000000     
   3.3700000000000010       -3.0000000000000000        0.0000000000000000     
   3.4400000000000004       -3.0000000000000000        0.0000000000000000     
   3.5100000000000007       -3.0000000000000000        0.0000000000000000     
   3.5800000000000010       -3.0000000000000000        0.0000000000000000     
   3.6500000000000004       -3.0000000000000000        0.0000000000000000     
   3.7200000000000006       -3.0000000000000000        0.0000000000000000     
   3.7900000000000009       -3.0000000000000000        0.0000000000000000     
   3.8600000000000003       -3.0000000000000000        0.0000000000000000     
   3.9300000000000006       -3.0000000000000000        0.0000000000000000     
   4.0000000000000009       -3.0000000000000000        0.0000000000000000     
  -3.0000000000000000       -2.9399999999999999        0.0000000000000000     
  -2.9300000000000002       -2.9399999999999999        0.0000000000000000     
  -2.8599999999999999       -2.9399999999999999        0.0000000000000000     
  -2.7900000000000000       -2.9399999999999999        0.0000000000000000     
  -2.7199999999999998       -2.9399999999999999        0.0000000000000000     
  -2.6499999999999999       -2.9399999999999999        0.0000000000000000     
  -2.5800000000000001       -2.9399999999999999        0.0000000000000000     
  -2.5099999999999998       -2.9399999999999999        0.0000000000000000     
  -2.4399999999999999       -2.9399999999999999        0.0000000000000000     
  -2.3700000000000001       -2.9399999999999999        0.0000000000000000     
  -2.2999999999999998       -2.9399999999999999        0.0000000000000000     
  -2.2300000000000000       -2.9399999999999999        0.0000000000000000     
  -2.1600000000000001       -2.9399999999999999        0.0000000000000000     
  -2.0899999999999999       -2.9399999999999999        0.0000000000000000     
  -2.0200000000000000       -2.9399999999999999        0.0000000000000000     
  -1.9500000000000000       -2.9399999999999999        0.0000000000000000     
  -1.8799999999999999       -2.9399999999999999        0.0000000000000000     
  -1.8099999999999998       -2.9399999999999999        0.0000000000000000     
  -1.7399999999999998       -2.9399999999999999        0.0000000000000000     
  -1.6699999999999999       -2.9399999999999999        0.0000000000000000     
  -1.5999999999999999       -2.9399999999999999        0.0000000000000000     
  -1.5299999999999998       -2.9399999999999999        0.0000000000000000     
  -1.4600000000000000       -2.9399999999999999        0.0000000000000000     
  -1.3899999999999999       -2.9399999999999999        0.0000000000000000     
  -1.3199999999999998       -2.9399999999999999        0.0000000000000000     
  -1.2499999999999998       -2.9399999999999999        0.0000000000000000     
  -1.1799999999999997       -2.9399999999999999        0.0000000000000000     
  -1.1099999999999999       -2.9399999999999999        0.0000000000000000     
  -1.0399999999999998       -2.9399999999999999        0.0000000000000000     
 -0.96999999999999975       -2.9399999999999999        0.0000000000000000     
 -0.89999999999999991       -2.9399999999999999        0.0000000000000000     
 -0.82999999999999963       -2.9399999999999999        0.0000000000000000     
 -0.75999999999999979       -2.9399999999999999        0.0000000000000000     
 -0.68999999999999995       -2.9399999999999999        0.0000000000000000     
 -0.61999999999999966       -2.9399999999999999        0.0000000000000000     
 -0.54999999999999982       -2.9399999999999999        0.0000000000000000     
 -0.47999999999999954       -2.9399999999999999        0.0000000000000000     
 -0.40999999999999970       -2.9399999999999999        0.0000000000000000     
 -0.33999999999999986       -2.9399999999999999        0.0000000000000000     
 -0.26999999999999957       -2.9399999999999999        0.0000000000000000     
 -0.19999999999999973       -2.9399999999999999        0.0000000000000000     
 -0.12999999999999981       -2.9399999999999999        0.0000000000000000     
  -5.9999999999999748E-002  -2.9399999999999999        0.0000000000000000     
   1.0000000000000231E-002  -2.9399999999999999        0.0000000000000000     
   8.0000000000000196E-002  -2.9399999999999999        0.0000000000000000     
  0.15000000000000027       -2.9399999999999999        0.0000000000000000     
  0.22000000000000028       -2.9399999999999999        0.0000000000000000     
  0.29000000000000048       -2.9399999999999999        0.0000000000000000     
  0.36000000000000032       -2.9399999999999999        0.0000000000000000     
  0.43000000000000016       -2.9399999999999999        0.0000000000000000     
  0.50000000000000044       -2.9399999999999999        0.0000000000000000     
  0.57000000000000028       -2.9399999999999999        0.0000000000000000     
  0.64000000000000057       -2.9399999999999999        0.0000000000000000     
  0.71000000000000041       -2.9399999999999999        0.0000000000000000     
  0.78000000000000025       -2.9399999999999999        0.0000000000000000     
  0.85000000000000053       -2.9399999999999999        0.0000000000000000     
  0.92000000000000037       -2.9399999999999999        0.0000000000000000     
  0.99000000000000021       -2.9399999999999999        0.0000000000000000     
   1.0600000000000005       -2.9399999999999999        0.0000000000000000     
   1.1300000000000008       -2.9399999999999999        0.0000000000000000     
   1.2000000000000002       -2.9399999999999999        0.0000000000000000     
   1.2700000000000005       -2.9399999999999999        0.0000000000000000     
   1.3400000000000007       -2.9399999999999999        0.0000000000000000     
   1.4100000000000001       -2.9399999999999999        0.0000000000000000     
   1.4800000000000004       -2.9399999999999999        0.0000000000000000     
   1.5500000000000007       -2.9399999999999999        0.0000000000000000     
   1.6200000000000001       -2.9399999999999999        0.0000000000000000     
   1.6900000000000004       -2.9399999999999999        0.0000000000000000     
   1.7600000000000007       -2.9399999999999999        0.0000000000000000     
   1.8300000000000001       -2.9399999999999999        0.0000000000000000     
   1.9000000000000004       -2.9399999999999999        0.0000000000000000     
   1.9700000000000006       -2.9399999999999999        0.0000000000000000     
   2.0400000000000009       -2.9399999999999999        0.0000000000000000     
   2.1100000000000003       -2.9399999999999999        0.0000000000000000     
   2.1800000000000006       -2.9399999999999999        0.0000000000000000     
   2.2500000000000009       -2.9399999999999999        0.0000000000000000     
   2.3200000000000003       -2.9399999999999999        0.0000000000000000     
   2.3900000000000006       -2.9399999999999999        0.0000000000000000     
   2.4600000000000009       -2.9399999999999999        0.0000000000000000     
   2.5300000000000002       -2.9399999999999999        0.0000000000000000     
   2.6000000000000005       -2.9399999999999999        0.0000000000000000     
   2.6700000000000008       -2.9399999999999999        0.0000000000000000     
   2.7400000000000002       -2.9399999999999999        0.0000000000000000     
   2.8100000000000005       -2.9399999999999999        0.0000000000000000     
   2.8800000000000008       -2.9399999999999999        0.0000000000000000     
   2.9500000000000002       -2.9399999999999999        0.0000000000000000     
   3.0200000000000005       -2.9399999999999999        0.0000000000000000     
   3.0900000000000007       -2.9399999999999999        0.0000000000000000     
   3.1600000000000001       -2.9399999999999999        0.0000000000000000     
   3.2300000000000004       -2.9399999999999999        0.0000000000000000     
   3.3000000000000007       -2.9399999999999999        0.0000000000000000     
   3.3700000000000010       -2.9399999999999999        0.0000000000000000     
   3.4400000000000004       -2.9399999999999999        0.0000000000000000     
   3.5100000000000007       -2.9399999999999999        0.0000000000000000     
   3.5800000000000010       -2.9399999999999999        0.0000000000000000     
   3.6500000000000004       -2.9399999999999999        0.0000000000000000     
   3.7200000000000006       -2.9399999999999999        0.0000000000000000     
   3.7900000000000009       -2.9399999999999999        0.0000000000000000     
   3.8600000000000003       -2.9399999999999999        0.0000000000000000     
   3.9300000000000006       -2.9399999999999999        0.0000000000000000     
   4.0000000000000009       -2.9399999999999999        0.0000000000000000     
  -3.0000000000000000       -2.8799999999999999        0.0000000000000000     
  -2.9300000000000002       -2.8799999999999999        0.0000000000000000     
  -2.8599999999999999       -2.8799999999999999        0.0000000000000000     
  -2.7900000000000000       -2.8799999999999999        0.0000000000000000     
  -2.7199999999999998       -2.8799999999999999        0.0000000000000000     
  -2.6499999999999999       -2.8799999999999999        0.0000000000000000     
  -2.5800000000000001       -2.8799999999999999        0.0000000000000000     
  -2.5099999999999998       -2.8799999999999999        0.0000000000000000     
  -2.4399999999999999       -2.8799999999999999        0.0000000000000000     
  -2.3700000000000001       -2.8799999999999999        0.0000000000000000     
  -2.2999999999999998       -2.8799999999999999        0.0000000000000000     
  -2.2300000000000000       -2.8799999999999999        0.0000000000000000     
  -2.1600000000000001       -2.8799999999999999        0.0000000000000000     
  -2.0899999999999999       -2.8799999999999999        0.0000000000000000     
  -2.0200000000000000       -2.8799999999999999        0.0000000000000000     
  -1.9500000000000000       -2.8799999999999999        0.0000000000000000     
  -1.8799999999999999       -2.8799999999999999        0.0000000000000000     
  -1.8099999999999998       -2.8799999999999999        0.0000000000000000     
  -1.7399999999999998       -2.8799999999999999        0.0000000000000000     
  -1.6699999999999999       -2.8799999999999999        0.0000000000000000     
  -1.5999999999999999       -2.8799999999999999        0.0000000000000000     
  -1.5299999999999998       -2.8799999999999999        0.0000000000000000     
  -1.4600000000000000       -2.8799999999999999        0.0000000000000000     
  -1.3899999999999999       -2.8799999999999999        0.0000000000000000     
  -1.3199999999999998       -2.8799999999999999        0.0000000000000000     
  -1.2499999999999998       -2.8799999999999999        0.0000000000000000     
  -1.1799999999999997       -2.8799999999999999        0.0000000000000000     
  -1.1099999999999999       -2.8799999999999999        0.0000000000000000     
  -1.0399999999999998       -2.8799999999999999        0.0000000000000000     
 -0.96999999999999975       -2.8799999999999999        0.0000000000000000     
 -0.89999999999999991       -2.8799999999999999        0.0000000000000000     
 -0.82999999999999963       -2.8799999999999999        0.0000000000000000     
 -0.75999999999999979       -2.8799999999999999        0.0000000000000000     
 -0.68999999999999995       -2.8799999999999999        0.0000000000000000     
 -0.61999999999999966       -2.8799999999999999        0.0000000000000000     
 -0.54999999999999982       -2.8799999999999999        0.0000000000000000     
 -0.47999999999999954       -2.8799999999999999        0.0000000000000000     
 -0.40999999999999970       -2.8799999999999999        0.0000000000000000     
 -0.33999999999999986       -2.8799999999999999        0.0000000000000000     
 -0.26999999999999957       -2.8799999999999999        0.0000000000000000     
 -0.19999999999999973       -2.8799999999999999        0.0000000000000000     
 -0.12999999999999981       -2.8799999999999999        0.0000000000000000     
  -5.9999999999999748E-002  -2.8799999999999999        0.0000000000000000     
   1.0000000000000231E-002  -2.8799999999999999        0.0000000000000000     
   8.0000000000000196E-002  -2.8799999999999999        0.0000000000000000     
  0.15000000000000027       -2.8799999999999999        0.0000000000000000     
  0.22000000000000028       -2.8799999999999999        0.0000000000000000     
  0.29000000000000048       -2.8799999999999999        0.0000000000000000     
  0.36000000000000032       -2.8799999999999999        0.0000000000000000     
  0.43000000000000016       -2.8799999999999999        0.0000000000000000     
  0.50000000000000044       -2.8799999999999999        0.0000000000000000     
  0.57000000000000028       -2.8799999999999999        0.0000000000000000     
  0.64000000000000057       -2.8799999999999999        0.0000000000000000     
  0.71000000000000041       -2.8799999999999999        0.0000000000000000     
  0.78000000000000025       -2.8799999999999999        0.0000000000000000     
  0.85000000000000053       -2.8799999999999999        0.0000000000000000     
  0.92000000000000037       -2.8799999999999999        0.0000000000000000     
  0.99000000000000021       -2.8799999999999999        0.0000000000000000     
   1.0600000000000005       -2.8799999999999999        0.0000000000000000     
   1.1300000000000008       -2.8799999999999999        0.0000000000000000     
   1.2000000000000002       -2.8799999999999999        0.0000000000000000     
   1.2700000000000005       -2.8799999999999999        0.0000000000000000     
   1.3400000000000007       -2.8799999999999999        0.0000000000000000     
   1.4100000000000001       -2.8799999999999999        0.0000000000000000     
   1.4800000000000004       -2.8799999999999999        0.0000000000000000     
   1.5500000000000007       -2.8799999999999999        0.0000000000000000     
   1.6200000000000001       -2.8799999999999999        0.0000000000000000     
   1.6900000000000004       -2.8799999999999999        0.0000000000000000     
   1.7600000000000007       -2.8799999999999999        0.0000000000000000     
   1.8300000000000001       -2.8799999999999999        0.0000000000000000     
   1.9000000000000004       -2.8799999999999999        0.0000000000000000     
   1.9700000000000006       -2.8799999999999999        0.0000000000000000     
   2.0400000000000009       -2.8799999999999999        0.0000000000000000     
   2.1100000000000003       -2.8799999999999999        0.0000000000000000     
   2.1800000000000006       -2.8799999999999999        0.0000000000000000     
   2.2500000000000009       -2.8799999999999999        0.0000000000000000     
   2.3200000000000003       -2.8799999999999999        0.0000000000000000     
   2.3900000000000006       -2.8799999999999999        0.0000000000000000     
   2.4600000000000009       -2.8799999999999999        0.0000000000000000     
   2.5300000000000002       -2.8799999999999999        0.0000000000000000     
   2.6000000000000005       -2.8799999999999999        0.0000000000000000     
   2.6700000000000008       -2.8799999999999999        0.0000000000000000     
   2.7400000000000002       -2.8799999999999999        0.0000000000000000     
   2.8100000000000005       -2.8799999999999999        0.0000000000000000     
   2.8800000000000008       -2.8799999999999999        0.0000000000000000     
   2.9500000000000002       -2.8799999999999999        0.0000000000000000     
   3.0200000000000005       -2.8799999999999999        0.0000000000000000     
   3.0900000000000007       -2.8799999999999999        0.0000000000000000     
   3.1600000000000001       -2.8799999999999999        0.0000000000000000     
   3.2300000000000004       -2.8799999999999999        0.0000000000000000     
   3.3000000000000007       -2.8799999999999999        0.0000000000000000     
   3.3700000000000010       -2.8799999999999999        0.0000000000000000     
   3.4400000000000004       -2.8799999999999999        0.0000000000000000     
   3.5100000000000007       -2.8799999999999999        0.0000000000000000     
   3.5800000000000010       -2.8799999999999999        0.0000000000000000     
   3.6500000000000004       -2.8799999999999999        0.0000000000000000     
   3.7200000000000006       -2.8799999999999999        0.0000000000000000     
   3.7900000000000009       -2.8799999999999999        0.0000000000000000     
   3.8600000000000003       -2.8799999999999999        0.0000000000000000     
   3.9300000000000006       -2.8799999999999999        0.0000000000000000     
   4.0000000000000009       -2.8799999999999999        0.0000000000000000     
  -3.0000000000000000       -2.8199999999999998        0.0000000000000000     
  -2.9300000000000002       -2.8199999999999998        0.0000000000000000     
  -2.8599999999999999       -2.8199999999999998        0.0000000000000000     
  -2.7900000000000000       -2.8199999999999998        0.0000000000000000     
  -2.7199999999999998       -2.8199999999999998        0.0000000000000000     
  -2.6499999999999999       -2.8199999999999998        0.0000000000000000     
  -2.5800000000000001       -2.8199999999999998        0.0000000000000000     
  -2.5099999999999998       -2.8199999999999998        0.0000000000000000     
  -2.4399999999999999       -2.8199999999999998        0.0000000000000000     
  -2.3700000000000001       -2.8199999999999998        0.0000000000000000     
  -2.2999999999999998       -2.8199999999999998        0.0000000000000000     
  -2.2300000000000000       -2.8199999999999998        0.0000000000000000     
  -2.1600000000000001       -2.8199999999999998        0.0000000000000000     
  -2.0899999999999999       -2.8199999999999998        0.0000000000000000     
  -2.0200000000000000       -2.8199999999999998        0.0000000000000000     
  -1.9500000000000000       -2.8199999999999998        0.0000000000000000     
  -1.8799999999999999       -2.8199999999999998        0.0000000000000000     
  -1.8099999999999998       -2.8199999999999998        0.0000000000000000     
  -1.7399999999999998       -2.8199999999999998        0.0000000000000000     
  -1.6699999999999999       -2.8199999999999998        0.0000000000000000     
  -1.5999999999999999       -2.8199999999999998        0.0000000000000000     
  -1.5299999999999998       -2.8199999999999998        0.0000000000000000     
  -1.4600000000000000       -2.8199999999999998        0.0000000000000000     
  -1.3899999999999999       -2.8199999999999998        0.0000000000000000     
  -1.3199999999999998       -2.8199999999999998        0.0000000000000000     
  -1.2499999999999998       -2.8199999999999998        0.0000000000000000     
  -1.1799999999999997       -2.8199999999999998        0.0000000000000000     
  -1.1099999999999999       -2.8199999999999998        0.0000000000000000     
  -1.0399999999999998       -2.8199999999999998        0.0000000000000000     
 -0.96999999999999975       -2.8199999999999998        0.0000000000000000     
 -0.89999999999999991       -2.8199999999999998        0.0000000000000000     
 -0.82999999999999963       -2.8199999999999998        0.0000000000000000     
 -0.75999999999999979       -2.8199999999999998        0.0000000000000000     
 -0.68999999999999995       -2.8199999999999998        0.0000000000000000     
 -0.61999999999999966       -2.8199999999999998        0.0000000000000000     
 -0.54999999999999982       -2.8199999999999998        0.0000000000000000     
 -0.47999999999999954       -2.8199999999999998        0.0000000000000000     
 -0.40999999999999970       -2.8199999999999998        0.0000000000000000     
 -0.33999999999999986       -2.8199999999999998        0.0000000000000000     
 -0.26999999999999957       -2.8199999999999998        0.0000000000000000     
 -0.19999999999999973       -2.8199999999999998        0.0000000000000000     
 -0.12999999999999981       -2.8199999999999998        0.0000000000000000     
  -5.9999999999999748E-002  -2.8199999999999998        0.0000000000000000     
   1.0000000000000231E-002  -2.8199999999999998        0.0000000000000000     
   8.0000000000000196E-002  -2.8199999999999998        0.0000000000000000     
  0.15000000000000027       -2.8199999999999998        0.0000000000000000     
  0.22000000000000028       -2.8199999999999998        0.0000000000000000     
  0.29000000000000048       -2.8199999999999998        0.0000000000000000     
  0.36000000000000032       -2.8199999999999998        0.0000000000000000     
  0.43000000000000016       -2.8199999999999998        0.0000000000000000     
  0.50000000000000044       -2.8199999999999998        0.0000000000000000     
  0.57000000000000028       -2.8199999999999998        0.0000000000000000     
  0.64000000000000057       -2.8199999999999998        0.0000000000000000     
  0.71000000000000041       -2.8199999999999998        0.0000000000000000     
  0.78000000000000025       -2.8199999999999998        0.0000000000000000     
  0.85000000000000053       -2.8199999999999998        0.0000000000000000     
  0.92000000000000037       -2.8199999999999998        0.0000000000000000     
  0.99000000000000021       -2.8199999999999998        0.0000000000000000     
   1.0600000000000005       -2.8199999999999998        0.0000000000000000     
   1.1300000000000008       -2.8199999999999998        0.0000000000000000     
   1.2000000000000002       -2.8199999999999998        0.0000000000000000     
   1.2700000000000005       -2.8199999999999998        0.0000000000000000     
   1.3400000000000007       -2.8199999999999998        0.0000000000000000     
   1.4100000000000001       -2.8199999999999998        0.0000000000000000     
   1.4800000000000004       -2.8199999999999998        0.0000000000000000     
   1.5500000000000007       -2.8199999999999998        0.0000000000000000     
   1.6200000000000001       -2.8199999999999998        0.0000000000000000     
   1.6900000000000004       -2.8199999999999998        0.0000000000000000     
   1.7600000000000007       -2.8199999999999998        0.0000000000000000     
   1.8300000000000001       -2.8199999999999998        0.0000000000000000     
   1.9000000000000004       -2.8199999999999998        0.0000000000000000     
   1.9700000000000006       -2.8199999999999998        0.0000000000000000     
   2.0400000000000009       -2.8199999999999998        0.0000000000000000     
   2.1100000000000003       -2.8199999999999998        0.0000000000000000     
   2.1800000000000006       -2.8199999999999998        0.0000000000000000     